

     ************************************************************************
     *************** Dalton - An Electronic Structure Program ***************
     ************************************************************************

    This is output from DALTON release Dalton2019.alpha (2019)
         ( Web site: http://daltonprogram.org )

   ----------------------------------------------------------------------------

    NOTE:
     
    Dalton is an experimental code for the evaluation of molecular
    properties using (MC)SCF, DFT, CI, and CC wave functions.
    The authors accept no responsibility for the performance of
    the code or for the correctness of the results.
     
    The code (in whole or part) is provided under a licence and
    is not to be reproduced for further distribution without
    the written permission of the authors or their representatives.
     
    See the home page "http://daltonprogram.org" for further information.
     
    If results obtained with this code are published,
    the appropriate citations would be both of:
     
       K. Aidas, C. Angeli, K. L. Bak, V. Bakken, R. Bast,
       L. Boman, O. Christiansen, R. Cimiraglia, S. Coriani,
       P. Dahle, E. K. Dalskov, U. Ekstroem,
       T. Enevoldsen, J. J. Eriksen, P. Ettenhuber, B. Fernandez,
       L. Ferrighi, H. Fliegl, L. Frediani, K. Hald, A. Halkier,
       C. Haettig, H. Heiberg, T. Helgaker, A. C. Hennum,
       H. Hettema, E. Hjertenaes, S. Hoest, I.-M. Hoeyvik,
       M. F. Iozzi, B. Jansik, H. J. Aa. Jensen, D. Jonsson,
       P. Joergensen, J. Kauczor, S. Kirpekar,
       T. Kjaergaard, W. Klopper, S. Knecht, R. Kobayashi, H. Koch,
       J. Kongsted, A. Krapp, K. Kristensen, A. Ligabue,
       O. B. Lutnaes, J. I. Melo, K. V. Mikkelsen, R. H. Myhre,
       C. Neiss, C. B. Nielsen, P. Norman, J. Olsen,
       J. M. H. Olsen, A. Osted, M. J. Packer, F. Pawlowski,
       T. B. Pedersen, P. F. Provasi, S. Reine, Z. Rinkevicius,
       T. A. Ruden, K. Ruud, V. Rybkin, P. Salek, C. C. M. Samson,
       A. Sanchez de Meras, T. Saue, S. P. A. Sauer,
       B. Schimmelpfennig, K. Sneskov, A. H. Steindal,
       K. O. Sylvester-Hvid, P. R. Taylor, A. M. Teale,
       E. I. Tellgren, D. P. Tew, A. J. Thorvaldsen, L. Thoegersen,
       O. Vahtras, M. A. Watson, D. J. D. Wilson, M. Ziolkowski
       and H. Agren,
       "The Dalton quantum chemistry program system",
       WIREs Comput. Mol. Sci. 2014, 4:269–284 (doi: 10.1002/wcms.1172)
     
    and
     
       Dalton, a molecular electronic structure program,
       Release Dalton2019.alpha (2019), see http://daltonprogram.org
   ----------------------------------------------------------------------------

    Authors in alphabetical order (major contribution(s) in parenthesis):

  Kestutis Aidas,           Vilnius University,           Lithuania   (QM/MM)
  Celestino Angeli,         University of Ferrara,        Italy       (NEVPT2)
  Keld L. Bak,              UNI-C,                        Denmark     (AOSOPPA, non-adiabatic coupling, magnetic properties)
  Vebjoern Bakken,          University of Oslo,           Norway      (DALTON; geometry optimizer, symmetry detection)
  Radovan Bast,             UiT The Arctic U. of Norway,  Norway      (DALTON installation and execution frameworks)
  Pablo Baudin,             University of Valencia,       Spain       (Cholesky excitation energies)
  Linus Boman,              NTNU,                         Norway      (Cholesky decomposition and subsystems)
  Ove Christiansen,         Aarhus University,            Denmark     (CC module)
  Renzo Cimiraglia,         University of Ferrara,        Italy       (NEVPT2)
  Sonia Coriani,            Technical Univ. of Denmark,   Denmark     (CC module, MCD in RESPONS)
  Janusz Cukras,            University of Trieste,        Italy       (MChD in RESPONS)
  Paal Dahle,               University of Oslo,           Norway      (Parallelization)
  Erik K. Dalskov,          UNI-C,                        Denmark     (SOPPA)
  Thomas Enevoldsen,        Univ. of Southern Denmark,    Denmark     (SOPPA)
  Janus J. Eriksen,         Aarhus University,            Denmark     (Polarizable embedding model, TDA)
  Rasmus Faber,             University of Copenhagen,     Denmark     (Vib.avg. NMR with SOPPA, parallel AO-SOPPA)
  Tobias Fahleson,          KTH Stockholm,                Sweden      (Damped cubic response)
  Berta Fernandez,          U. of Santiago de Compostela, Spain       (doublet spin, ESR in RESPONS)
  Lara Ferrighi,            Aarhus University,            Denmark     (PCM Cubic response)
  Heike Fliegl,             University of Oslo,           Norway      (CCSD(R12))
  Luca Frediani,            UiT The Arctic U. of Norway,  Norway      (PCM)
  Bin Gao,                  UiT The Arctic U. of Norway,  Norway      (Gen1Int library)
  Christof Haettig,         Ruhr-University Bochum,       Germany     (CC module)
  Kasper Hald,              Aarhus University,            Denmark     (CC module)
  Asger Halkier,            Aarhus University,            Denmark     (CC module)
  Frederik Beyer Hansen,    University of Copenhagen,     Denmark     (Parallel AO-SOPPA)
  Erik D. Hedegaard,        Univ. of Southern Denmark,    Denmark     (Polarizable embedding model, QM/MM)
  Hanne Heiberg,            University of Oslo,           Norway      (geometry analysis, selected one-electron integrals)
  Trygve Helgaker,          University of Oslo,           Norway      (DALTON; ABACUS, ERI, DFT modules, London, and much more)
  Alf Christian Hennum,     University of Oslo,           Norway      (Parity violation)
  Hinne Hettema,            University of Auckland,       New Zealand (quadratic response in RESPONS; SIRIUS supersymmetry)
  Eirik Hjertenaes,         NTNU,                         Norway      (Cholesky decomposition)
  Pi A. B. Haase,           University of Copenhagen,     Denmark     (Triplet AO-SOPPA)
  Maria Francesca Iozzi,    University of Oslo,           Norway      (RPA)
  Christoph Jacob           TU Braunschweig               Germany     (Frozen density embedding model)
  Brano Jansik              Technical Univ. of Ostrava    Czech Rep.  (DFT cubic response)
  Hans Joergen Aa. Jensen,  Univ. of Southern Denmark,    Denmark     (DALTON; SIRIUS, RESPONS, ABACUS modules, London, and much more)
  Dan Jonsson,              UiT The Arctic U. of Norway,  Norway      (cubic response in RESPONS module)
  Poul Joergensen,          Aarhus University,            Denmark     (RESPONS, ABACUS, and CC modules)
  Maciej Kaminski,          University of Warsaw,         Poland      (CPPh in RESPONS)
  Joanna Kauczor,           Linkoeping University,        Sweden      (Complex polarization propagator (CPP) module)
  Sheela Kirpekar,          Univ. of Southern Denmark,    Denmark     (Mass-velocity & Darwin integrals)
  Wim Klopper,              KIT Karlsruhe,                Germany     (R12 code in CC, SIRIUS, and ABACUS modules)
  Stefan Knecht,            ETH Zurich,                   Switzerland (Parallel CI and MCSCF)
  Rika Kobayashi,           Australian National Univ.,    Australia   (DIIS in CC, London in MCSCF)
  Henrik Koch,              NTNU,                         Norway      (CC module, Cholesky decomposition)
  Jacob Kongsted,           Univ. of Southern Denmark,    Denmark     (Polarizable embedding model, QM/MM)
  Andrea Ligabue,           University of Modena,         Italy       (CTOCD, AOSOPPA)
  Nanna H. List             Univ. of Southern Denmark,    Denmark     (Polarizable embedding model)
  Ola B. Lutnaes,           University of Oslo,           Norway      (DFT Hessian)
  Juan I. Melo,             University of Buenos Aires,   Argentina   (LRESC, Relativistic Effects on NMR Shieldings)
  Kurt V. Mikkelsen,        University of Copenhagen,     Denmark     (MC-SCRF and QM/MM)
  Rolf H. Myhre,            NTNU,                         Norway      (Subsystems and CC3)
  Christian Neiss,          Univ. Erlangen-Nuernberg,     Germany     (CCSD(R12))
  Christian B. Nielsen,     University of Copenhagen,     Denmark     (QM/MM)
  Patrick Norman,           KTH Stockholm,                Sweden      (Cubic response and complex frequency response in RESPONS)
  Jeppe Olsen,              Aarhus University,            Denmark     (SIRIUS CI/density modules)
  Jogvan Magnus H. Olsen,   Univ. of Southern Denmark,    Denmark     (Polarizable embedding model, QM/MM)
  Anders Osted,             Copenhagen University,        Denmark     (QM/MM)
  Martin J. Packer,         University of Sheffield,      UK          (SOPPA)
  Filip Pawlowski,          Kazimierz Wielki University,  Poland      (CC3)
  Morten N. Pedersen,       Univ. of Southern Denmark,    Denmark     (Polarizable embedding model)
  Thomas B. Pedersen,       University of Oslo,           Norway      (Cholesky decomposition)
  Patricio F. Provasi,      University of Northeastern,   Argentina   (Analysis of coupling constants in localized orbitals)
  Zilvinas Rinkevicius,     KTH Stockholm,                Sweden      (open-shell DFT, ESR)
  Elias Rudberg,            KTH Stockholm,                Sweden      (DFT grid and basis info)
  Torgeir A. Ruden,         University of Oslo,           Norway      (Numerical derivatives in ABACUS)
  Kenneth Ruud,             UiT The Arctic U. of Norway,  Norway      (DALTON; ABACUS magnetic properties and much more)
  Pawel Salek,              KTH Stockholm,                Sweden      (DALTON; DFT code)
  Claire C. M. Samson       University of Karlsruhe       Germany     (Boys localization, r12 integrals in ERI)
  Alfredo Sanchez de Meras, University of Valencia,       Spain       (CC module, Cholesky decomposition)
  Trond Saue,               Paul Sabatier University,     France      (direct Fock matrix construction)
  Stephan P. A. Sauer,      University of Copenhagen,     Denmark     (SOPPA(CCSD), SOPPA prop., AOSOPPA, vibrational g-factors)
  Andre S. P. Gomes,        CNRS/Universite de Lille,     France      (Frozen density embedding model)
  Bernd Schimmelpfennig,    Forschungszentrum Karlsruhe,  Germany     (AMFI module)
  Kristian Sneskov,         Aarhus University,            Denmark     (Polarizable embedding model, QM/MM)
  Arnfinn H. Steindal,      UiT The Arctic U. of Norway,  Norway      (parallel QM/MM, Polarizable embedding model)
  Casper Steinmann,         Univ. of Southern Denmark,    Denmark     (QFIT, Polarizable embedding model)
  K. O. Sylvester-Hvid,     University of Copenhagen,     Denmark     (MC-SCRF)
  Peter R. Taylor,          VLSCI/Univ. of Melbourne,     Australia   (Symmetry handling ABACUS, integral transformation)
  Andrew M. Teale,          University of Nottingham,     England     (DFT-AC, DFT-D)
  David P. Tew,             University of Bristol,        England     (CCSD(R12))
  Olav Vahtras,             KTH Stockholm,                Sweden      (triplet response, spin-orbit, ESR, TDDFT, open-shell DFT)
  Lucas Visscher,           Vrije Universiteit Amsterdam, Netherlands (Frozen density embedding model)
  David J. Wilson,          La Trobe University,          Australia   (DFT Hessian and DFT magnetizabilities)
  Hans Agren,               KTH Stockholm,                Sweden      (SIRIUS module, RESPONS, MC-SCRF solvation model)
 --------------------------------------------------------------------------------

     Date and time (Linux)  : Sat Oct 19 22:59:24 2019
     Host name              : patricio-Studio-1558                    

 * Work memory size             :   384000000 =  2.861 gigabytes.

 * Directories for basis set searches:
   1) /home/patricio/pfp/work/Stephan-excengJ/Test-final
   2) /home/patricio/pfp/source/GIT-local-auto/dalton-git/build/basis


Compilation information
-----------------------

 Who compiled             | patricio
 Host                     | patricio-Studio-1558
 System                   | Linux-5.0.0-31-generic
 CMake generator          | Unix Makefiles
 Processor                | x86_64
 64-bit integers          | OFF
 MPI                      | OFF
 Fortran compiler         | /usr/bin/gfortran
 Fortran compiler version | GNU Fortran (Ubuntu 7.4.0-1ubuntu1~18.04.1) 7.4.0
 C compiler               | /usr/bin/gcc
 C compiler version       | gcc (Ubuntu 7.4.0-1ubuntu1~18.04.1) 7.4.0
 C++ compiler             | /usr/bin/g++
 C++ compiler version     | g++ (Ubuntu 7.4.0-1ubuntu1~18.04.1) 7.4.0
 Static linking           | OFF
 Last Git revision        | 3e9135a349931920fe3d3e5a3157f75d45c9f436
 Git branch               | local-auto
 Configuration time       | 2019-10-19 09:55:25.513683


   Content of the .dal input file
 ----------------------------------

**DALTON INPUT
.RUN PROPERTIES
*MOLBAS
.MAXPRI
 40
.PRINT
 2
**WAVE FUNCTION
.DFT
 B3LYP
*ORBITAL INPUT
.MOSTART
 H1DIAG
**PROPERTIES
.SPIN-SPIN
.LOCALIZATION
*TRPRSP
.MAXRED
 1800
*LINRES
.MAXRED
 1800
*SPIN-SPIN
.SOSOCC
.SOSOSC
  5  5000   5
  6    5   7   5.0D0
.ABUNDA
 0.04
#.PRINT
# 20
*LOCALIZATION
.FOSBOY
*END OF DALTON INPUT



   Content of the .mol file
 ----------------------------

BASIS
6-31G
NH3 : basis set 6-31G
Geometry : R_e=1.91315 a0, 106.67
    2    0            0.10D-15  0.10D-15
      7.00    1
N    0.0000000000000      0.0000000000000      0.1280609409808
      1.00    3
H1   1.5346152182086      0.8860105093353     -0.5931078547182
H2  -1.5346152182086      0.8860105093353     -0.5931078547182
H3   0.0000000000000     -1.7720210186705     -0.5931078547182
FINISH



       *******************************************************************
       *********** Output from DALTON general input processing ***********
       *******************************************************************

 --------------------------------------------------------------------------------
   Overall default print level:    0
   Print level for DALTON.STAT:    1

    HERMIT 1- and 2-electron integral sections will be executed
    "Old" integral transformation used (limited to max 255 basis functions)
    Wave function sections will be executed (SIRIUS module)
    Static molecular property section will be executed (ABACUS module)
 --------------------------------------------------------------------------------

@ * Nuclear model: Point charge.


 Changes of defaults for *MOLBAS
 -------------------------------

 Print level in molecule setup (READIN):    2

 Maximum number of primitives per integral block :   40



   ****************************************************************************
   *************** Output of molecule and basis set information ***************
   ****************************************************************************


 Basis set 1 is  "6-31G" from the basis set library.

    The two title cards from your ".mol" input:
    ------------------------------------------------------------------------
 1: NH3 : basis set 6-31G                                                   
 2: Geometry : R_e=1.91315 a0, 106.67                                       
    ------------------------------------------------------------------------

  INFO from READIN: Threshold for discarding integrals was    1.00D-16
  INFO from READIN: Threshold is reset to minimum value       1.00D-15

  Atomic type no.    1
  --------------------
  Nuclear charge:   7.00000
  Number of symmetry independent centers:    1
  Number of basis sets to read;    1
  Basis set file used for this atomic type with Z =   7 :
  Trying file: "/home/patricio/pfp/work/Stephan-excengJ/Test-final/6-31G"
  Trying file: "/home/patricio/pfp/source/GIT-local-auto/dalton-git/build/basis/6-31G"
     "/home/patricio/pfp/source/GIT-local-auto/dalton-git/build/basis/6-31G"

  Info about the basis set file: your basis has no documentation.
  Basis set: 6-31G                                                                           

  Atomic type no.    2
  --------------------
  Nuclear charge:   1.00000
  Number of symmetry independent centers:    3
  Number of basis sets to read;    1
  Basis set file used for this atomic type with Z =   1 :
  Trying file: "/home/patricio/pfp/work/Stephan-excengJ/Test-final/6-31G"
  Trying file: "/home/patricio/pfp/source/GIT-local-auto/dalton-git/build/basis/6-31G"
     "/home/patricio/pfp/source/GIT-local-auto/dalton-git/build/basis/6-31G"

  Info about the basis set file: your basis has no documentation.
  Basis set: 6-31G                                                                           


                         SYMGRP: Point group information
                         -------------------------------

@    Point group: C1 


                                 Isotopic Masses
                                 ---------------

                           N          14.003074
                           H1          1.007825
                           H2          1.007825
                           H3          1.007825

                       Total mass:    17.026549 amu
                       Natural abundance:  99.585 %

 Center-of-mass coordinates (a.u.):    0.000000    0.000000    0.000000


  Atoms and basis sets
  --------------------

  Number of atom types :    2
  Total number of atoms:    4

  Basis set used is "6-31G" from the basis set library.

  label    atoms   charge   prim   cont     basis
  ----------------------------------------------------------------------
  N           1    7.0000    22     9      [10s4p|3s2p]                                       
  H3          3    1.0000     4     2      [4s|2s]                                            
  ----------------------------------------------------------------------
  total:      4   10.0000    34    15
  ----------------------------------------------------------------------

  Threshold for neglecting AO integrals:  1.00D-15


  Cartesian Coordinates (a.u.)
  ----------------------------

  Total number of coordinates:   12
  N       :     1  x   0.0000000000    2  y   0.0000000000    3  z   0.1280609410
  H1      :     4  x   1.5346152182    5  y   0.8860105093    6  z  -0.5931078547
  H2      :     7  x  -1.5346152182    8  y   0.8860105093    9  z  -0.5931078547
  H3      :    10  x   0.0000000000   11  y  -1.7720210187   12  z  -0.5931078547


   Interatomic separations (in Angstrom):
   --------------------------------------

            N           H1          H2          H3    
            ------      ------      ------      ------
 N     :    0.000000
 H1    :    1.012395    0.000000
 H2    :    1.012395    1.624167    0.000000
 H3    :    1.012395    1.624167    1.624167    0.000000


  Max    interatomic separation is    1.6242 Angstrom (    3.0692 Bohr)
  between atoms    4 and    2, "H3    " and "H1    ".

  Min HX interatomic separation is    1.0124 Angstrom (    1.9131 Bohr)


  Bond distances (Angstrom):
  --------------------------

                  atom 1     atom 2       distance
                  ------     ------       --------
  bond distance:  H1         N            1.012395
  bond distance:  H2         N            1.012395
  bond distance:  H3         N            1.012395


  Bond angles (degrees):
  ----------------------

                  atom 1     atom 2     atom 3         angle
                  ------     ------     ------         -----
  bond angle:     H1         N          H2           106.670
  bond angle:     H1         N          H3           106.670
  bond angle:     H2         N          H3           106.670




 Principal moments of inertia (u*A**2) and principal axes
 --------------------------------------------------------

   IA       1.691422          0.000000    1.000000   -0.000000
   IB       1.691422          1.000000    0.000000    0.000000
   IC       2.658560          0.000000    0.000000    1.000000


 Rotational constants
 --------------------

               A                   B                   C

         298789.4155         298789.4155         190095.0514 MHz
            9.966542            9.966542            6.340888 cm-1


@  Nuclear repulsion energy :   11.954105241814 Hartree


  Orbital exponents and contraction coefficients
  ----------------------------------------------


  N      1s      1     4173.511000      0.0018    0.0000    0.0000
   seg. cont.    2      627.457900      0.0140    0.0000    0.0000
                 3      142.902100      0.0686    0.0000    0.0000
                 4       40.234330      0.2322    0.0000    0.0000
                 5       12.820210      0.4691    0.0000    0.0000
                 6        4.390437      0.3605    0.0000    0.0000
                 7       11.626358      0.0000   -0.1150    0.0000
                 8        2.716280      0.0000   -0.1691    0.0000
                 9        0.772218      0.0000    1.1459    0.0000
                10        0.212031      0.0000    0.0000    1.0000

  N      2px    11       11.626358      0.0676    0.0000
   seg. cont.   12        2.716280      0.3239    0.0000
                13        0.772218      0.7409    0.0000
                14        0.212031      0.0000    1.0000

  N      2py    15       11.626358      0.0676    0.0000
   seg. cont.   16        2.716280      0.3239    0.0000
                17        0.772218      0.7409    0.0000
                18        0.212031      0.0000    1.0000

  N      2pz    19       11.626358      0.0676    0.0000
   seg. cont.   20        2.716280      0.3239    0.0000
                21        0.772218      0.7409    0.0000
                22        0.212031      0.0000    1.0000

  H1     1s     23       18.731137      0.0335    0.0000
   seg. cont.   24        2.825394      0.2347    0.0000
                25        0.640122      0.8138    0.0000
                26        0.161278      0.0000    1.0000

  H2     1s     27       18.731137      0.0335    0.0000
   seg. cont.   28        2.825394      0.2347    0.0000
                29        0.640122      0.8138    0.0000
                30        0.161278      0.0000    1.0000

  H3     1s     31       18.731137      0.0335    0.0000
   seg. cont.   32        2.825394      0.2347    0.0000
                33        0.640122      0.8138    0.0000
                34        0.161278      0.0000    1.0000


  Contracted Orbitals
  -------------------

    1  N       1s      1    2    3    4    5    6
    2  N       1s      7    8    9
    3  N       1s     10
    4  N       2px    11   12   13
    5  N       2py    15   16   17
    6  N       2pz    19   20   21
    7  N       2px    14
    8  N       2py    18
    9  N       2pz    22
   10  H1      1s     23   24   25
   11  H1      1s     26
   12  H2      1s     27   28   29
   13  H2      1s     30
   14  H3      1s     31   32   33
   15  H3      1s     34




 Copy of .mol input
 ------------------


--------------------------------------------------------------------------------
BASIS                                                                           
6-31G                                                                           
NH3 : basis set 6-31G                                                           
Geometry : R_e=1.91315 a0, 106.67                                               
    2    0            0.10D-15  0.10D-15                                        
      7.00    1                                                                 
N           0.0000000000        0.0000000000        0.1280609410                
      1.00    3                                                                 
H1          1.5346152182        0.8860105093       -0.5931078547                
H2         -1.5346152182        0.8860105093       -0.5931078547                
H3          0.0000000000       -1.7720210187       -0.5931078547                
--------------------------------------------------------------------------------



                     .---------------------------------------.
                     | Starting in Integral Section (HERMIT) |
                     `---------------------------------------'



 ***************************************************************************************
 ****************** Output from **INTEGRALS input processing (HERMIT) ******************
 ***************************************************************************************


 - Using defaults, no **INTEGRALS input found

 Default print level:        1

 Calculation of one- and two-electron Hamiltonian integrals.

 Center of mass  (bohr):      0.000000000000      0.000000000000      0.000000003643
 Operator center (bohr):      0.000000000000      0.000000000000      0.000000000000
 Gauge origin    (bohr):      0.000000000000      0.000000000000      0.000000000000
 Dipole origin   (bohr):      0.000000000000      0.000000000000      0.000000000000


     ************************************************************************
     ************************** Output from HERINT **************************
     ************************************************************************



                      Nuclear contribution to dipole moments
                      --------------------------------------

                 au               Debye          C m (/(10**-30)

      x      0.00000000         0.00000000         0.00000000
      y      0.00000000         0.00000000         0.00000000
      z     -0.88289698        -2.24410013        -7.48551230



 Threshold for neglecting two-electron integrals:  1.00D-15
 HERMIT - Number of two-electron integrals written:        5972 ( 82.3% )
 HERMIT - Megabytes written:                              0.069

  Total CPU  time used in HERMIT:   0.03 seconds
  Total wall time used in HERMIT:   0.05 seconds


                        .----------------------------------.
                        | End of Integral Section (HERMIT) |
                        `----------------------------------'



                   .--------------------------------------------.
                   | Starting in Wave Function Section (SIRIUS) |
                   `--------------------------------------------'


 **********************************************************************
 *SIRIUS* a direct, restricted step, second order MCSCF program       *
 **********************************************************************

 
     Date and time (Linux)  : Sat Oct 19 22:59:24 2019
     Host name              : patricio-Studio-1558                    

 Title lines from ".mol" input file:
     NH3 : basis set 6-31G                                                   
     Geometry : R_e=1.91315 a0, 106.67                                       

 Print level on unit LUPRI =   2 is   0
 Print level on unit LUW4  =   2 is   5

@    Restricted, closed shell Kohn-Sham DFT calculation.

 Initial molecular orbitals are obtained according to
 ".MOSTART H1DIAG" input option

     Wave function specification
     ============================
@    Wave function type        --- KS-DFT ---
@    Number of closed shell electrons          10
@    Number of electrons in active shells       0
@    Total charge of the molecule               0

@    Spin multiplicity and 2 M_S                1         0
@    Total number of symmetries                 1 (point group: C1 )
@    Reference state symmetry                   1 (irrep name : A  )
 
     This is a DFT calculation of type: B3LYP
 Weighted mixed functional:
               HF exchange:    0.20000
                       VWN:    0.19000
                       LYP:    0.81000
                     Becke:    0.72000
                    Slater:    0.80000

     Orbital specifications
     ======================
@    Abelian symmetry species          All |    1
@                                          |  A  
                                       --- |  ---
@    Occupied SCF orbitals               5 |    5
@    Secondary orbitals                 10 |   10
@    Total number of orbitals           15 |   15
@    Number of basis functions          15 |   15

     Optimization information
     ========================
@    Number of configurations                 1
@    Number of orbital rotations             50
     ------------------------------------------
@    Total number of variables               51

     Maximum number of Fock   iterations      0
     Maximum number of DIIS   iterations     60
     Maximum number of QC-SCF iterations     60
     Threshold for SCF convergence     1.00D-05
 
     This is a DFT calculation of type: B3LYP
 Weighted mixed functional:
               HF exchange:    0.20000
                       VWN:    0.19000
                       LYP:    0.81000
                     Becke:    0.72000
                    Slater:    0.80000


 ***********************************************
 ***** DIIS acceleration of SCF iterations *****
 ***********************************************

 C1-DIIS algorithm; max error vectors =    8

 Iter      Total energy        Error norm    Delta(E)  DIIS dim.
 -----------------------------------------------------------------------------
      K-S energy, electrons, error :     -8.462609255935   9.9999994780   -5.22D-07
@  1    -49.9007352039        6.88811D+00   -4.99D+01    1
      Virial theorem: -V/T =      1.682241
@    MULPOP   N      -2.78; H1      0.93; H2      0.93; H3      0.93; 
   1  Level shift: doubly occupied orbital energies shifted by -2.00D-01
 -----------------------------------------------------------------------------
      K-S energy, electrons, error :     -5.418597756137  10.0000000386    3.86D-08
@  2    -51.9362909582        5.91449D+00   -2.04D+00    2
      Virial theorem: -V/T =      2.062147
@    MULPOP   N       4.30; H1     -1.43; H2     -1.43; H3     -1.43; 
   2  Level shift: doubly occupied orbital energies shifted by -2.00D-01
 -----------------------------------------------------------------------------
      K-S energy, electrons, error :     -6.357046203163   9.9999999613   -3.87D-08
@  3    -56.4489302618        8.58617D-01   -4.51D+00    3
      Virial theorem: -V/T =      2.020411
@    MULPOP   N      -0.62; H1      0.21; H2      0.21; H3      0.21; 
   3  Level shift: doubly occupied orbital energies shifted by -5.00D-02
 -----------------------------------------------------------------------------
      K-S energy, electrons, error :     -6.373557061260   9.9999999983   -1.66D-09
@  4    -56.4676086682        6.69151D-01   -1.87D-02    4
      Virial theorem: -V/T =      2.017940
@    MULPOP   N      -0.57; H1      0.19; H2      0.19; H3      0.19; 
   4  Level shift: doubly occupied orbital energies shifted by -5.00D-02
 -----------------------------------------------------------------------------
      K-S energy, electrons, error :     -6.408889429584   9.9999999890   -1.10D-08
@  5    -56.4822584874        4.30421D-01   -1.46D-02    5
      Virial theorem: -V/T =      2.013220
@    MULPOP   N      -0.67; H1      0.22; H2      0.22; H3      0.22; 
   5  Level shift: doubly occupied orbital energies shifted by -5.00D-02
 -----------------------------------------------------------------------------
      K-S energy, electrons, error :     -6.468056572704   9.9999999653   -3.47D-08
@  6    -56.4921623634        3.65764D-02   -9.90D-03    6
      Virial theorem: -V/T =      2.005074
@    MULPOP   N      -0.80; H1      0.27; H2      0.27; H3      0.27; 
   6  Level shift: doubly occupied orbital energies shifted by -1.25D-02
 -----------------------------------------------------------------------------
      K-S energy, electrons, error :     -6.473823381796   9.9999999619   -3.81D-08
@  7    -56.4922391129        1.46862D-03   -7.67D-05    7
      Virial theorem: -V/T =      2.004301
@    MULPOP   N      -0.81; H1      0.27; H2      0.27; H3      0.27; 
 -----------------------------------------------------------------------------
      K-S energy, electrons, error :     -6.473680102739   9.9999999619   -3.81D-08
@  8    -56.4922392908        2.83914D-04   -1.78D-07    8
      Virial theorem: -V/T =      2.004328
@    MULPOP   N      -0.81; H1      0.27; H2      0.27; H3      0.27; 
 -----------------------------------------------------------------------------
      K-S energy, electrons, error :     -6.473638593331   9.9999999619   -3.81D-08
@  9    -56.4922392950        4.37249D-06   -4.15D-09    8

@ *** DIIS converged in   9 iterations !
@     Converged SCF energy, gradient:    -56.492239294965    4.37D-06
    - total time used in SIRFCK :              0.00 seconds


 *** SCF orbital energy analysis ***

 Number of electrons :   10
 Orbital occupations :    5

 Sym       Kohn-Sham orbital energies

1 A     -14.29666065    -0.85572981    -0.45621669    -0.45621667    -0.23483081
          0.07819206     0.17086383     0.17086385     0.71530936     0.71530939
          0.73111390     0.93642816     0.93642823     0.94755610     1.27285094

    E(LUMO) :     0.07819206 au (symmetry 1)
  - E(HOMO) :    -0.23483081 au (symmetry 1)
  ------------------------------------------
    gap     :     0.31302287 au

 --- Writing SIRIFC interface file

 CPU and wall time for SCF :       6.704       6.826


                       .-----------------------------------.
                       | --- Final results from SIRIUS --- |
                       `-----------------------------------'


@    Spin multiplicity:           1
@    Spatial symmetry:            1 ( irrep  A   in C1  )
@    Total charge of molecule:    0

@    Final DFT energy:            -56.492239294965                 
@    Nuclear repulsion:            11.954105241814
@    Electronic energy:           -68.446344536779

@    Final gradient norm:           0.000004372488

 
     Date and time (Linux)  : Sat Oct 19 22:59:31 2019
     Host name              : patricio-Studio-1558                    

File label for MO orbitals:  19Oct19   FOCKDIIS

 (Only coefficients > 0.0100 are printed.)

 Molecular orbitals for symmetry species 1  (A  )
 ------------------------------------------------

    Orbital         1        2        3        4        5        6        7
   1 N   :1s     0.9952  -0.1987  -0.0000  -0.0000  -0.0746   0.1183   0.0000
   2 N   :1s     0.0309   0.4151   0.0000   0.0000   0.1720  -0.1732  -0.0000
   3 N   :1s    -0.0186   0.4283  -0.0000   0.0000   0.2787  -1.7108   0.0000
   4 N   :2px   -0.0000  -0.0000  -0.0454   0.4798   0.0000   0.0000  -0.0447
   5 N   :2py   -0.0000  -0.0000   0.4798   0.0454   0.0000   0.0000   0.4185
   6 N   :2pz   -0.0024  -0.1342  -0.0000  -0.0000   0.5526   0.1987   0.0000
   7 N   :2px    0.0000  -0.0000  -0.0209   0.2210  -0.0000   0.0000  -0.1077
   8 N   :2py    0.0000  -0.0000   0.2210   0.0209  -0.0000   0.0000   1.0087
   9 N   :2pz    0.0031  -0.0683  -0.0000  -0.0000   0.4861   0.4304   0.0000
  10 H1  :1s    -0.0003   0.1430   0.1251   0.2733  -0.0513   0.0617  -0.0399
  11 H1  :1s     0.0039   0.0087   0.0855   0.1867  -0.0446   0.8995  -0.6685
  12 H2  :1s    -0.0003   0.1430   0.1741  -0.2450  -0.0513   0.0617  -0.0580
  13 H2  :1s     0.0039   0.0087   0.1189  -0.1674  -0.0446   0.8995  -0.9718
  14 H3  :1s    -0.0003   0.1430  -0.2992  -0.0283  -0.0513   0.0617   0.0978
  15 H3  :1s     0.0039   0.0087  -0.2044  -0.0193  -0.0446   0.8995   1.6403

    Orbital         8        9       10       11       12       13       14
   1 N   :1s    -0.0000  -0.0000   0.0000  -0.0308  -0.0000  -0.0000   0.0958
   2 N   :1s     0.0000   0.0000  -0.0000   0.0735   0.0000   0.0000  -0.7127
   3 N   :1s     0.0000  -0.0000  -0.0000   0.4079   0.0000  -0.0000   0.6670
   4 N   :2px    0.4185   0.0178  -0.4345  -0.0000  -0.0368  -0.9604  -0.0000
   5 N   :2py    0.0447  -0.4345  -0.0178  -0.0000   0.9604  -0.0368  -0.0000
   6 N   :2pz   -0.0000  -0.0000   0.0000   0.9977  -0.0000  -0.0000   0.1946
   7 N   :2px    1.0087  -0.0565   1.3818   0.0000   0.0472   1.2313   0.0000
   8 N   :2py    0.1077   1.3818   0.0565   0.0000  -1.2313   0.0472   0.0000
   9 N   :2pz   -0.0000  -0.0000   0.0000  -1.1686   0.0000  -0.0000   0.1324
  10 H1  :1s    -0.0899  -0.3845  -0.7337  -0.0338  -0.3343   0.6339   0.7585
  11 H1  :1s    -1.5081  -0.0265  -0.0506  -0.2212   0.6898  -1.3081  -0.5163
  12 H2  :1s     0.0795  -0.4431   0.6998  -0.0338  -0.3818  -0.6065   0.7585
  13 H2  :1s     1.3330  -0.0305   0.0482  -0.2212   0.7879   1.2514  -0.5162
  14 H3  :1s     0.0104   0.8276   0.0338  -0.0338   0.7161  -0.0275   0.7585
  15 H3  :1s     0.1751   0.0570   0.0023  -0.2212  -1.4777   0.0567  -0.5163

    Orbital        15
   2 N   :1s    -1.8125
   3 N   :1s     3.6955
   6 N   :2pz    0.0620
   9 N   :2pz   -0.7647
  10 H1  :1s    -0.4515
  11 H1  :1s    -0.7116
  12 H2  :1s    -0.4515
  13 H2  :1s    -0.7116
  14 H3  :1s    -0.4515
  15 H3  :1s    -0.7116

  Total CPU  time used in SIRIUS :   6.71 seconds
  Total wall time used in SIRIUS :   6.85 seconds

 
     Date and time (Linux)  : Sat Oct 19 22:59:31 2019
     Host name              : patricio-Studio-1558                    


                     .---------------------------------------.
                     | End of Wave Function Section (SIRIUS) |
                     `---------------------------------------'



        *****************************************************************
        ******** Output from **PROPE input processing for ABACUS ********
        *****************************************************************



 The following molecular properties will be calculated in this run:
 ------------------------------------------------------------------

 Default print level:        0

      Nuclear spin-spin coupling constants
      Localized orbitals are used in the analysis
      Natural orbital connection is used
      for perturbation dependent basis sets.


 Changes of defaults for TRPRSP:
 -------------------------------

 Threshold in triplet response: 1.00E-04
 Maximum iterations in TRPRSP :   60
 Maximum size of reduced space : 1800


 Changes of defaults for LINRES:
 -------------------------------

 Singlet linear response module for properties
 as VCD, MAGSUS, SPIN-SPIN, SHIELD, SPINRO, MOLGFA
 Print level in LINRES        :    0
 Threshold in LINRES          : 2.00D-03
 Maximum iterations in LINRES :   60


 Changes of defaults for SPIN-S:
 -------------------------------

 Spin-spin couplings printed for atoms with abundance greater than :   0.040 %
 Orbital analysis of spin-spin couplings
 Only contributions from pairs of occupied  orbitals are printed


 Changes of defaults for LOCALI:
 -------------------------------

 FOSOCC: Foster Boys localization of all occupied orbitals

 Center of mass dipole origin  :    0.000000    0.000000    0.000000

 Center of mass gauge origin   :    0.000000    0.000000    0.000000


                 .------------------------------------------------.
                 | Starting in Static Property Section (ABACUS) - |
                 `------------------------------------------------'


 
     Date and time (Linux)  : Sat Oct 19 22:59:31 2019
     Host name              : patricio-Studio-1558                    

No symmetry -> DSO by numerical integration.
 Electrons:  10.0000000(-3.81e-08): DFTDSO time:       0.4 s

 2-el. integral transformation level 4: Total CPU and WALL times (sec)       0.007       0.007

 Sorting integrals to Dirac format: Total CPU and WALL times (sec)       0.001       0.002
    Convergence for SD 001 x. Last residual and threshold:   0.00002   0.00010
    Convergence for SD 002 x. Last residual and threshold:   0.00001   0.00010
    Convergence for SD 002 y. Last residual and threshold:   0.00002   0.00010
    Convergence for SD 003 x. Last residual and threshold:   0.00001   0.00010
    Convergence for SD 003 y. Last residual and threshold:   0.00001   0.00010
    Convergence for SD 003 z. Last residual and threshold:   0.00007   0.00010
    Convergence for SD 004 x. Last residual and threshold:   0.00007   0.00010
    Convergence for SD 005 x. Last residual and threshold:   0.00008   0.00010
    Convergence for SD 005 y. Last residual and threshold:   0.00006   0.00010
    Convergence for SD 006 x. Last residual and threshold:   0.00008   0.00010
    Convergence for SD 006 y. Last residual and threshold:   0.00007   0.00010
    Convergence for SD 006 z. Last residual and threshold:   0.00007   0.00010
    Convergence for SD 007 x. Last residual and threshold:   0.00007   0.00010
    Convergence for SD 008 x. Last residual and threshold:   0.00008   0.00010
    Convergence for SD 008 y. Last residual and threshold:   0.00006   0.00010
    Convergence for SD 009 x. Last residual and threshold:   0.00008   0.00010
    Convergence for SD 009 y. Last residual and threshold:   0.00007   0.00010
    Convergence for SD 009 z. Last residual and threshold:   0.00007   0.00010
    Convergence for SD 010 x. Last residual and threshold:   0.00010   0.00010
    Convergence for SD 011 x. Last residual and threshold:   0.00002   0.00010
    Convergence for SD 011 y. Last residual and threshold:   0.00007   0.00010
    Convergence for SD 012 x. Last residual and threshold:   0.00002   0.00010
    Convergence for SD 012 y. Last residual and threshold:   0.00008   0.00010
    Convergence for SD 012 z. Last residual and threshold:   0.00007   0.00010
    Convergence for FC N  01. Last residual and threshold:   0.00007   0.00010
    Convergence for FC H1 02. Last residual and threshold:   0.00005   0.00010
    Convergence for FC H2 03. Last residual and threshold:   0.00005   0.00010
    Convergence for FC H3 04. Last residual and threshold:   0.00005   0.00010
    Convergence for PSO 001 . Last residual and threshold:   0.00163   0.00200
    Convergence for PSO 002 . Last residual and threshold:   0.00163   0.00200
    Convergence for PSO 003 . Last residual and threshold:   0.00064   0.00200
    Convergence for PSO 004 . Last residual and threshold:   0.00061   0.00200
    Convergence for PSO 005 . Last residual and threshold:   0.00059   0.00200
    Convergence for PSO 006 . Last residual and threshold:   0.00046   0.00200
    Convergence for PSO 007 . Last residual and threshold:   0.00061   0.00200
    Convergence for PSO 008 . Last residual and threshold:   0.00059   0.00200
    Convergence for PSO 009 . Last residual and threshold:   0.00046   0.00200
    Convergence for PSO 010 . Last residual and threshold:   0.00055   0.00200
    Convergence for PSO 011 . Last residual and threshold:   0.00045   0.00200
    Convergence for PSO 012 . Last residual and threshold:   0.00046   0.00200


   ***************************************************************************
   ************************ FINAL RESULTS from ABACUS ************************
   ***************************************************************************


 
     Date and time (Linux)  : Sat Oct 19 23:02:06 2019
     Host name              : patricio-Studio-1558                    


                             Molecular geometry (au)
                             -----------------------

 N          0.0000000000            0.0000000000            0.1280609410
 H1         1.5346152182            0.8860105093           -0.5931078547
 H2        -1.5346152182            0.8860105093           -0.5931078547
 H3         0.0000000000           -1.7720210187           -0.5931078547





                        Molecular wave function and energy
                        ----------------------------------

     Spatial symmetry   1 ( A   )
     Spin multiplicity  1
     2 * M_S            0
     State number       1
     Total charge       0

     Total energy        -56.4922392950 au (Hartrees)
                         -1537.23202834 eV
                           -148320.3514 kJ/mol
                            -35449.4148 kcal/mol


                   Scalar Breit-Pauli relativistic corrections
                   -------------------------------------------

     Darwin correction:                          0.1122419151 au
     Mass-velocity correction:                  -0.1408395196 au

     Total relativistic correction:             -0.0285976046 au ( 0.0506%)
     Non-relativistic + relativistic energy:   -56.5208368995 au



      (Note that these corrections are NOT included in the results below.)


                                  Dipole moment
                                  -------------

                 au               Debye          C m (/(10**-30)
              0.881643           2.240913           7.474881


                             Dipole moment components
                             ------------------------

                 au               Debye          C m (/(10**-30)

      x      0.00000059         0.00000151         0.00000503
      y     -0.00000017        -0.00000043        -0.00000143
      z     -0.88164304        -2.24091295        -7.47488102


   Units:   1 a.u. =   2.54175 Debye 
            1 a.u. =   8.47835 (10**-30) C m (SI)




 *******************************************************************************
 **************** ABACUS - INDIRECT NUCLEAR SPIN-SPIN COUPLINGS ****************
 *******************************************************************************

 Definitions from Smith, Palke, and Grieg, Concepts in Mag. Res. 4 (1992) 107



                       +------------------------------------+
                       ! ABACUS - Final spin-spin couplings !
                       +------------------------------------+



              Indirect spin-spin coupling between H1     and N     :
              ======================================================


  Mass number atom 1:    1;   Abundance:  99.985 %;   g factor:   5.585694
  Mass number atom 2:   14;   Abundance:  99.630 %;   g factor:   0.403761

  Isotropic coupling        :     42.9931 Hz
  Anisotropic coupling      :     -3.5736 Hz
  Asymmetry                 :     -0.5916   
  S parameter               :      3.7762 Hz
  A parameter               :      0.0954 Hz
  Isotropic DSO contribution:      0.1276 Hz
  Isotropic PSO contribution:      1.7230 Hz
  Isotropic SD contribution :      0.0769 Hz
  Isotropic FC contribution :     41.0656 Hz




                           Total Coupling Tensor in Hz
                           ---------------------------

                             x              y              z

                x    42.52067      -1.367311       1.294742    
                y   -1.367311       44.09949      0.7475183    
                z    1.129568      0.6521553       42.35900    

  Mass number atom 1:    1;   Abundance:  99.985 %;   g factor:   5.585694
  Mass number atom 2:   15;   Abundance:   0.370 %;   g factor:  -0.566378

  Isotropic coupling        :    -60.3087 Hz
  Anisotropic coupling      :      5.0128 Hz
  Asymmetry                 :     -0.5916   
  S parameter               :     -5.2971 Hz
  A parameter               :     -0.1338 Hz
  Isotropic DSO contribution:     -0.1790 Hz
  Isotropic PSO contribution:     -2.4169 Hz
  Isotropic SD contribution :     -0.1078 Hz
  Isotropic FC contribution :    -57.6050 Hz




                           Total Coupling Tensor in Hz
                           ---------------------------

                             x              y              z

                x   -59.64610       1.918004      -1.816206    
                y    1.918003      -61.86081      -1.048585    
                z   -1.584507     -0.9148145      -59.41932    


              Indirect spin-spin coupling between H2     and N     :
              ======================================================


  Mass number atom 1:    1;   Abundance:  99.985 %;   g factor:   5.585694
  Mass number atom 2:   14;   Abundance:  99.630 %;   g factor:   0.403761

  Isotropic coupling        :     42.9931 Hz
  Anisotropic coupling      :     -3.5735 Hz
  Asymmetry                 :     -0.5916   
  S parameter               :      3.7762 Hz
  A parameter               :      0.0954 Hz
  Isotropic DSO contribution:      0.1276 Hz
  Isotropic PSO contribution:      1.7230 Hz
  Isotropic SD contribution :      0.0769 Hz
  Isotropic FC contribution :     41.0656 Hz




                           Total Coupling Tensor in Hz
                           ---------------------------

                             x              y              z

                x    42.52067       1.367307      -1.294742    
                y    1.367308       44.09950      0.7475175    
                z   -1.129568      0.6521539       42.35901    

  Mass number atom 1:    1;   Abundance:  99.985 %;   g factor:   5.585694
  Mass number atom 2:   15;   Abundance:   0.370 %;   g factor:  -0.566378

  Isotropic coupling        :    -60.3088 Hz
  Anisotropic coupling      :      5.0128 Hz
  Asymmetry                 :     -0.5916   
  S parameter               :     -5.2971 Hz
  A parameter               :     -0.1338 Hz
  Isotropic DSO contribution:     -0.1790 Hz
  Isotropic PSO contribution:     -2.4169 Hz
  Isotropic SD contribution :     -0.1078 Hz
  Isotropic FC contribution :    -57.6050 Hz




                           Total Coupling Tensor in Hz
                           ---------------------------

                             x              y              z

                x   -59.64611      -1.917998       1.816207    
                y   -1.917999      -61.86083      -1.048584    
                z    1.584508     -0.9148126      -59.41933    


              Indirect spin-spin coupling between H2     and H1    :
              ======================================================


  Mass number atom 1:    1;   Abundance:  99.985 %;   g factor:   5.585694
  Mass number atom 2:    1;   Abundance:  99.985 %;   g factor:   5.585694

  Isotropic coupling        :    -13.0044 Hz
  Anisotropic coupling      :    -28.9979 Hz
  Asymmetry                 :     -0.5276   
  S parameter               :     30.3136 Hz
  A parameter               :      7.7044 Hz
  Isotropic DSO contribution:     -4.8129 Hz
  Isotropic PSO contribution:      2.1327 Hz
  Isotropic SD contribution :      0.8278 Hz
  Isotropic FC contribution :    -11.1519 Hz




                           Total Coupling Tensor in Hz
                           ---------------------------

                             x              y              z

                x    1.761725      -6.315495       4.412818    
                y    6.315496      -17.41161      -11.57237    
                z   -4.412820      -11.57237      -23.36331    


              Indirect spin-spin coupling between H3     and N     :
              ======================================================


  Mass number atom 1:    1;   Abundance:  99.985 %;   g factor:   5.585694
  Mass number atom 2:   14;   Abundance:  99.630 %;   g factor:   0.403761

  Isotropic coupling        :     42.9930 Hz
  Anisotropic coupling      :     -3.5735 Hz
  Asymmetry                 :     -0.5916   
  S parameter               :      3.7762 Hz
  A parameter               :      0.0954 Hz
  Isotropic DSO contribution:      0.1276 Hz
  Isotropic PSO contribution:      1.7230 Hz
  Isotropic SD contribution :      0.0769 Hz
  Isotropic FC contribution :     41.0656 Hz




                           Total Coupling Tensor in Hz
                           ---------------------------

                             x              y              z

                x    44.88890     -4.1339838E-07 -4.9619245E-07
                y  -2.1505535E-06   41.73124      -1.495033    
                z  -7.6298923E-07  -1.304306       42.35899    

  Mass number atom 1:    1;   Abundance:  99.985 %;   g factor:   5.585694
  Mass number atom 2:   15;   Abundance:   0.370 %;   g factor:  -0.566378

  Isotropic coupling        :    -60.3087 Hz
  Anisotropic coupling      :      5.0128 Hz
  Asymmetry                 :     -0.5916   
  S parameter               :     -5.2971 Hz
  A parameter               :     -0.1338 Hz
  Isotropic DSO contribution:     -0.1790 Hz
  Isotropic PSO contribution:     -2.4169 Hz
  Isotropic SD contribution :     -0.1078 Hz
  Isotropic FC contribution :    -57.6050 Hz




                           Total Coupling Tensor in Hz
                           ---------------------------

                             x              y              z

                x   -62.96816      5.7989689E-07  6.9603674E-07
                y   3.0167009E-06  -58.53873       2.097166    
                z   1.0702874E-06   1.829623      -59.41930    


              Indirect spin-spin coupling between H3     and H1    :
              ======================================================


  Mass number atom 1:    1;   Abundance:  99.985 %;   g factor:   5.585694
  Mass number atom 2:    1;   Abundance:  99.985 %;   g factor:   5.585694

  Isotropic coupling        :    -13.0044 Hz
  Anisotropic coupling      :    -28.9979 Hz
  Asymmetry                 :     -0.5276   
  S parameter               :     30.3136 Hz
  A parameter               :      7.7044 Hz
  Isotropic DSO contribution:     -4.8129 Hz
  Isotropic PSO contribution:      2.1327 Hz
  Isotropic SD contribution :      0.8278 Hz
  Isotropic FC contribution :    -11.1519 Hz




                           Total Coupling Tensor in Hz
                           ---------------------------

                             x              y              z

                x   -12.61827       14.61780      -7.815552    
                y    1.986805      -3.031602       9.607796    
                z   -12.22837       1.964570      -23.36330    


              Indirect spin-spin coupling between H3     and H2    :
              ======================================================


  Mass number atom 1:    1;   Abundance:  99.985 %;   g factor:   5.585694
  Mass number atom 2:    1;   Abundance:  99.985 %;   g factor:   5.585694

  Isotropic coupling        :    -13.0044 Hz
  Anisotropic coupling      :    -28.9979 Hz
  Asymmetry                 :     -0.5276   
  S parameter               :     30.3136 Hz
  A parameter               :      7.7044 Hz
  Isotropic DSO contribution:     -4.8129 Hz
  Isotropic PSO contribution:      2.1327 Hz
  Isotropic SD contribution :      0.8278 Hz
  Isotropic FC contribution :    -11.1519 Hz




                           Total Coupling Tensor in Hz
                           ---------------------------

                             x              y              z

                x   -12.61824      -14.61779       7.815556    
                y   -1.986799      -3.031571       9.607799    
                z    12.22837       1.964573      -23.36327    


   Interatomic separations (in Angstrom):
   --------------------------------------

            N           H1          H2          H3    
            ------      ------      ------      ------
 N     :    0.000000
 H1    :    1.012395    0.000000
 H2    :    1.012395    1.624167    0.000000
 H3    :    1.012395    1.624167    1.624167    0.000000


  Max    interatomic separation is    1.6242 Angstrom (    3.0692 Bohr)
  between atoms    4 and    2, "H3    " and "H1    ".

  Min HX interatomic separation is    1.0124 Angstrom (    1.9131 Bohr)


  Bond distances (Angstrom):
  --------------------------

                  atom 1     atom 2       distance
                  ------     ------       --------
  bond distance:  H1         N            1.012395
  bond distance:  H2         N            1.012395
  bond distance:  H3         N            1.012395


  Bond angles (degrees):
  ----------------------

                  atom 1     atom 2     atom 3         angle
                  ------     ------     ------         -----
  bond angle:     H1         N          H2           106.670
  bond angle:     H1         N          H3           106.670
  bond angle:     H2         N          H3           106.670




 FOSTER-BOYS LOCALIZATION:
 SUM OF (R-VECTOR)**2 FOR THE ORBITAL DISTRIBUTIONS
 INCREASED BY   3.72878      TO   4.47933    
 NUMBER OF (2*2)-OPTIMIZATIONS:   51  ACCURACY: 0.10E-11




                      Localized Occupied Molecular Orbitals
                      -------------------------------------


      5  Localized Occupied Molecular Orbitals 

 Orbital                  1           2           3           4           5
   1  N     1s      1.00750174 -0.06908626  0.06908608 -0.06908619 -0.07767126
   2  N     1s     -0.00055855  0.20327766 -0.20327774  0.20327783  0.28081897
   3  N     1s     -0.05427468  0.19206330 -0.19206339  0.19206354  0.38446131
   4  N     2px    -0.00000004 -0.34080409  0.00000005  0.34080414 -0.00000021
   5  N     2py     0.00000006  0.19676340  0.39352672  0.19676340 -0.00000006
   6  N     2pz    -0.01231416 -0.16290692  0.16290687 -0.16290661  0.49356080
   7  N     2px    -0.00000002 -0.15699077  0.00000019  0.15699096 -0.00000010
   8  N     2py     0.00000003  0.09063867  0.18127746  0.09063882 -0.00000003
   9  N     2pz    -0.00867993 -0.11560543  0.11560538 -0.11560515  0.44811709
  10  H1    1s     -0.00746652 -0.03530940  0.03530930  0.33281755 -0.00992275
  11  H1    1s      0.00483541 -0.07176321  0.07176307  0.17971230 -0.04028015
  12  H2    1s     -0.00746647  0.33281769  0.03530942 -0.03530941 -0.00992252
  13  H2    1s      0.00483544  0.17971247  0.07176325 -0.07176320 -0.04028000
  14  H3    1s     -0.00746655 -0.03530947 -0.33281759 -0.03530933 -0.00992258
  15  H3    1s      0.00483539 -0.07176323 -0.17971234 -0.07176314 -0.04028004

  ----------------------------------------------------
  ---------- Molden (loc) input generated ------------
  --- Use [-D] opt. when running dalton to see it ----
  ----------------------------------------------------


 Old LUGDT file opened in SOSJTR.


                Triplet electronic excitation energies
                --------------------------------------

     Sym.      Mode              Frequency               Frequency
    ex. st.    No.               (au)                    (eV)
    ---------------------------------------------------------------
      1         1                 0.23608                  6.42405
      1         2                 0.31492                  8.56940
      1         3                 0.31492                  8.56940
      1         4                 0.44212                 12.03066
      1         5                 0.44212                 12.03066

 Old LUGDI file opened in SOSJSN.


                Singlet electronic excitation energies
                --------------------------------------

     Sym.      Mode              Frequency               Frequency
    ex. st.    No.               (au)                    (eV)
    ---------------------------------------------------------------
      1         1                 0.25866                  7.03854
      1         2                 0.35103                  9.55189
      1         3                 0.35103                  9.55190
      1         4                 0.48799                 13.27875
      1         5                 0.48799                 13.27875


           +-----------------------------------------------------------+
           ! Contributions to the indirect spin-spin coupling constant !
           +-----------------------------------------------------------+



              Indirect spin-spin-coupling between H1     and N     :
              ======================================================


  Mass number atom 1:   1          Abundance:   99.985
  Mass number atom 2:  14          Abundance:   99.630


                     DSO part of spin-spin coupling constant
                     ---------------------------------------


                label     I  label     J
      1   -**--**-  1  -**--**-  1     -0.0286
      7   -**--**-  2  -**--**-  2      0.1968
     13   -**--**-  3  -**--**-  3      0.1968
     19   -**--**-  4  -**--**-  4     -0.4872
     25   -**--**-  5  -**--**-  5      0.2498
          TOTAL                          0.1276


                     PSO part of spin-spin coupling constant
                     ---------------------------------------


                label     I  label     J
      7   -**--**-  2  -**--**-  2      0.0486
     10   -**--**-  5  -**--**-  2      0.0374
     13   -**--**-  3  -**--**-  3      0.0486
     15   -**--**-  5  -**--**-  3      0.0374
     16   -**--**-  1  -**--**-  4      0.0207
     17   -**--**-  2  -**--**-  4      0.0152
     18   -**--**-  3  -**--**-  4      0.0152
     19   -**--**-  4  -**--**-  4      0.0825
     20   -**--**-  5  -**--**-  4     -0.1298
     21   -**--**-  1  -**--**-  5      0.0657
     24   -**--**-  4  -**--**-  5      0.0830
     25   -**--**-  5  -**--**-  5     -0.2532
          TOTAL                          0.0763


                      SD part of spin-spin coupling constant
                      --------------------------------------


                label     I  label     J
      7   -**--**-  2  -**--**-  2      0.0198
      9   -**--**-  4  -**--**-  2     -0.0533
     13   -**--**-  3  -**--**-  3      0.0198
     14   -**--**-  4  -**--**-  3     -0.0533
     17   -**--**-  2  -**--**-  4      0.0118
     18   -**--**-  3  -**--**-  4      0.0118
     19   -**--**-  4  -**--**-  4     -0.1615
     22   -**--**-  2  -**--**-  5      0.0234
     23   -**--**-  3  -**--**-  5      0.0234
     24   -**--**-  4  -**--**-  5     -0.0324
     25   -**--**-  5  -**--**-  5      0.0910
          TOTAL                         -0.0976


                      FC part of spin-spin coupling constant
                      --------------------------------------


                label     I  label     J
      2   -**--**-  2  -**--**-  1      0.1957
      3   -**--**-  3  -**--**-  1      0.1957
      4   -**--**-  4  -**--**-  1     -4.5573
      5   -**--**-  5  -**--**-  1     -0.4770
      7   -**--**-  2  -**--**-  2     -0.7432
      8   -**--**-  3  -**--**-  2      0.1413
      9   -**--**-  4  -**--**-  2     -7.5826
     10   -**--**-  5  -**--**-  2      0.1676
     12   -**--**-  2  -**--**-  3      0.1413
     13   -**--**-  3  -**--**-  3     -0.7432
     14   -**--**-  4  -**--**-  3     -7.5826
     15   -**--**-  5  -**--**-  3      0.1676
     17   -**--**-  2  -**--**-  4      0.3799
     18   -**--**-  3  -**--**-  4      0.3799
     19   -**--**-  4  -**--**-  4     20.3332
     20   -**--**-  5  -**--**-  4      0.2057
     21   -**--**-  1  -**--**-  5      0.0202
     22   -**--**-  2  -**--**-  5      0.4312
     23   -**--**-  3  -**--**-  5      0.4312
     24   -**--**-  4  -**--**-  5    -10.0404
     25   -**--**-  5  -**--**-  5     -1.0509
          TOTAL                         -9.5878


                        Total spin-spin coupling constant
                        ---------------------------------


                label     I  label     J
      1   -**--**-  1  -**--**-  1     -0.0194
      2   -**--**-  2  -**--**-  1      0.1957
      3   -**--**-  3  -**--**-  1      0.1957
      4   -**--**-  4  -**--**-  1     -4.5570
      5   -**--**-  5  -**--**-  1     -0.4773
      7   -**--**-  2  -**--**-  2     -0.4779
      8   -**--**-  3  -**--**-  2      0.1290
      9   -**--**-  4  -**--**-  2     -7.6336
     10   -**--**-  5  -**--**-  2      0.2108
     12   -**--**-  2  -**--**-  3      0.1290
     13   -**--**-  3  -**--**-  3     -0.4779
     14   -**--**-  4  -**--**-  3     -7.6336
     15   -**--**-  5  -**--**-  3      0.2108
     16   -**--**-  1  -**--**-  4      0.0202
     17   -**--**-  2  -**--**-  4      0.4069
     18   -**--**-  3  -**--**-  4      0.4069
     19   -**--**-  4  -**--**-  4     19.7670
     20   -**--**-  5  -**--**-  4      0.0855
     21   -**--**-  1  -**--**-  5      0.0847
     22   -**--**-  2  -**--**-  5      0.4625
     23   -**--**-  3  -**--**-  5      0.4625
     24   -**--**-  4  -**--**-  5     -9.9898
     25   -**--**-  5  -**--**-  5     -0.9634
          TOTAL                         -9.4815

  Mass number atom 1:   1          Abundance:   99.985
  Mass number atom 2:  15          Abundance:    0.370


                     DSO part of spin-spin coupling constant
                     ---------------------------------------


                label     I  label     J
      1   -**--**-  1  -**--**-  1      0.0402
      7   -**--**-  2  -**--**-  2     -0.2761
     13   -**--**-  3  -**--**-  3     -0.2761
     19   -**--**-  4  -**--**-  4      0.6834
     25   -**--**-  5  -**--**-  5     -0.3504
          TOTAL                         -0.1790


                     PSO part of spin-spin coupling constant
                     ---------------------------------------


                label     I  label     J
      7   -**--**-  2  -**--**-  2     -0.0682
     10   -**--**-  5  -**--**-  2     -0.0524
     13   -**--**-  3  -**--**-  3     -0.0682
     15   -**--**-  5  -**--**-  3     -0.0524
     16   -**--**-  1  -**--**-  4     -0.0290
     17   -**--**-  2  -**--**-  4     -0.0213
     18   -**--**-  3  -**--**-  4     -0.0213
     19   -**--**-  4  -**--**-  4     -0.1157
     20   -**--**-  5  -**--**-  4      0.1821
     21   -**--**-  1  -**--**-  5     -0.0922
     22   -**--**-  2  -**--**-  5     -0.0111
     23   -**--**-  3  -**--**-  5     -0.0111
     24   -**--**-  4  -**--**-  5     -0.1164
     25   -**--**-  5  -**--**-  5      0.3552
          TOTAL                         -0.1070


                      SD part of spin-spin coupling constant
                      --------------------------------------


                label     I  label     J
      7   -**--**-  2  -**--**-  2     -0.0278
      8   -**--**-  3  -**--**-  2      0.0129
      9   -**--**-  4  -**--**-  2      0.0748
     12   -**--**-  2  -**--**-  3      0.0129
     13   -**--**-  3  -**--**-  3     -0.0278
     14   -**--**-  4  -**--**-  3      0.0748
     17   -**--**-  2  -**--**-  4     -0.0166
     18   -**--**-  3  -**--**-  4     -0.0166
     19   -**--**-  4  -**--**-  4      0.2265
     20   -**--**-  5  -**--**-  4     -0.0135
     22   -**--**-  2  -**--**-  5     -0.0328
     23   -**--**-  3  -**--**-  5     -0.0328
     24   -**--**-  4  -**--**-  5      0.0454
     25   -**--**-  5  -**--**-  5     -0.1276
          TOTAL                          0.1369


                      FC part of spin-spin coupling constant
                      --------------------------------------


                label     I  label     J
      1   -**--**-  1  -**--**-  1     -0.0129
      2   -**--**-  2  -**--**-  1     -0.2745
      3   -**--**-  3  -**--**-  1     -0.2745
      4   -**--**-  4  -**--**-  1      6.3928
      5   -**--**-  5  -**--**-  1      0.6691
      7   -**--**-  2  -**--**-  2      1.0425
      8   -**--**-  3  -**--**-  2     -0.1982
      9   -**--**-  4  -**--**-  2     10.6365
     10   -**--**-  5  -**--**-  2     -0.2351
     12   -**--**-  2  -**--**-  3     -0.1982
     13   -**--**-  3  -**--**-  3      1.0425
     14   -**--**-  4  -**--**-  3     10.6365
     15   -**--**-  5  -**--**-  3     -0.2351
     17   -**--**-  2  -**--**-  4     -0.5329
     18   -**--**-  3  -**--**-  4     -0.5329
     19   -**--**-  4  -**--**-  4    -28.5226
     20   -**--**-  5  -**--**-  4     -0.2886
     21   -**--**-  1  -**--**-  5     -0.0284
     22   -**--**-  2  -**--**-  5     -0.6048
     23   -**--**-  3  -**--**-  5     -0.6048
     24   -**--**-  4  -**--**-  5     14.0842
     25   -**--**-  5  -**--**-  5      1.4742
          TOTAL                         13.4493


                        Total spin-spin coupling constant
                        ---------------------------------


                label     I  label     J
      1   -**--**-  1  -**--**-  1      0.0272
      2   -**--**-  2  -**--**-  1     -0.2746
      3   -**--**-  3  -**--**-  1     -0.2746
      4   -**--**-  4  -**--**-  1      6.3924
      5   -**--**-  5  -**--**-  1      0.6696
      6   -**--**-  1  -**--**-  2      0.0134
      7   -**--**-  2  -**--**-  2      0.6704
      8   -**--**-  3  -**--**-  2     -0.1810
      9   -**--**-  4  -**--**-  2     10.7081
     10   -**--**-  5  -**--**-  2     -0.2958
     11   -**--**-  1  -**--**-  3      0.0134
     12   -**--**-  2  -**--**-  3     -0.1810
     13   -**--**-  3  -**--**-  3      0.6704
     14   -**--**-  4  -**--**-  3     10.7081
     15   -**--**-  5  -**--**-  3     -0.2958
     16   -**--**-  1  -**--**-  4     -0.0284
     17   -**--**-  2  -**--**-  4     -0.5708
     18   -**--**-  3  -**--**-  4     -0.5708
     19   -**--**-  4  -**--**-  4    -27.7283
     20   -**--**-  5  -**--**-  4     -0.1199
     21   -**--**-  1  -**--**-  5     -0.1188
     22   -**--**-  2  -**--**-  5     -0.6488
     23   -**--**-  3  -**--**-  5     -0.6488
     24   -**--**-  4  -**--**-  5     14.0133
     25   -**--**-  5  -**--**-  5      1.3514
          TOTAL                         13.3002


              Indirect spin-spin-coupling between H2     and N     :
              ======================================================


  Mass number atom 1:   1          Abundance:   99.985
  Mass number atom 2:  14          Abundance:   99.630


                     DSO part of spin-spin coupling constant
                     ---------------------------------------


                label     I  label     J
      1   -**--**-  1  -**--**-  1     -0.0286
      7   -**--**-  2  -**--**-  2     -0.4872
     13   -**--**-  3  -**--**-  3      0.1968
     19   -**--**-  4  -**--**-  4      0.1968
     25   -**--**-  5  -**--**-  5      0.2498
          TOTAL                          0.1276


                     PSO part of spin-spin coupling constant
                     ---------------------------------------


                label     I  label     J
      6   -**--**-  1  -**--**-  2      0.0207
      7   -**--**-  2  -**--**-  2      0.0825
      8   -**--**-  3  -**--**-  2      0.0152
      9   -**--**-  4  -**--**-  2      0.0152
     10   -**--**-  5  -**--**-  2     -0.1298
     13   -**--**-  3  -**--**-  3      0.0486
     15   -**--**-  5  -**--**-  3      0.0374
     19   -**--**-  4  -**--**-  4      0.0486
     20   -**--**-  5  -**--**-  4      0.0374
     21   -**--**-  1  -**--**-  5      0.0657
     22   -**--**-  2  -**--**-  5      0.0830
     25   -**--**-  5  -**--**-  5     -0.2532
          TOTAL                          0.0763


                      SD part of spin-spin coupling constant
                      --------------------------------------


                label     I  label     J
      7   -**--**-  2  -**--**-  2     -0.1615
      8   -**--**-  3  -**--**-  2      0.0118
      9   -**--**-  4  -**--**-  2      0.0118
     12   -**--**-  2  -**--**-  3     -0.0533
     13   -**--**-  3  -**--**-  3      0.0198
     17   -**--**-  2  -**--**-  4     -0.0533
     19   -**--**-  4  -**--**-  4      0.0198
     22   -**--**-  2  -**--**-  5     -0.0324
     23   -**--**-  3  -**--**-  5      0.0234
     24   -**--**-  4  -**--**-  5      0.0234
     25   -**--**-  5  -**--**-  5      0.0910
          TOTAL                         -0.0976


                      FC part of spin-spin coupling constant
                      --------------------------------------


                label     I  label     J
      2   -**--**-  2  -**--**-  1     -4.5574
      3   -**--**-  3  -**--**-  1      0.1957
      4   -**--**-  4  -**--**-  1      0.1957
      5   -**--**-  5  -**--**-  1     -0.4770
      7   -**--**-  2  -**--**-  2     20.3333
      8   -**--**-  3  -**--**-  2      0.3799
      9   -**--**-  4  -**--**-  2      0.3799
     10   -**--**-  5  -**--**-  2      0.2057
     12   -**--**-  2  -**--**-  3     -7.5826
     13   -**--**-  3  -**--**-  3     -0.7432
     14   -**--**-  4  -**--**-  3      0.1413
     15   -**--**-  5  -**--**-  3      0.1676
     17   -**--**-  2  -**--**-  4     -7.5826
     18   -**--**-  3  -**--**-  4      0.1413
     19   -**--**-  4  -**--**-  4     -0.7432
     20   -**--**-  5  -**--**-  4      0.1676
     21   -**--**-  1  -**--**-  5      0.0202
     22   -**--**-  2  -**--**-  5    -10.0404
     23   -**--**-  3  -**--**-  5      0.4312
     24   -**--**-  4  -**--**-  5      0.4312
     25   -**--**-  5  -**--**-  5     -1.0509
          TOTAL                         -9.5878


                        Total spin-spin coupling constant
                        ---------------------------------


                label     I  label     J
      1   -**--**-  1  -**--**-  1     -0.0194
      2   -**--**-  2  -**--**-  1     -4.5571
      3   -**--**-  3  -**--**-  1      0.1957
      4   -**--**-  4  -**--**-  1      0.1957
      5   -**--**-  5  -**--**-  1     -0.4773
      6   -**--**-  1  -**--**-  2      0.0202
      7   -**--**-  2  -**--**-  2     19.7671
      8   -**--**-  3  -**--**-  2      0.4069
      9   -**--**-  4  -**--**-  2      0.4069
     10   -**--**-  5  -**--**-  2      0.0855
     12   -**--**-  2  -**--**-  3     -7.6336
     13   -**--**-  3  -**--**-  3     -0.4779
     14   -**--**-  4  -**--**-  3      0.1290
     15   -**--**-  5  -**--**-  3      0.2108
     17   -**--**-  2  -**--**-  4     -7.6336
     18   -**--**-  3  -**--**-  4      0.1290
     19   -**--**-  4  -**--**-  4     -0.4779
     20   -**--**-  5  -**--**-  4      0.2108
     21   -**--**-  1  -**--**-  5      0.0847
     22   -**--**-  2  -**--**-  5     -9.9898
     23   -**--**-  3  -**--**-  5      0.4625
     24   -**--**-  4  -**--**-  5      0.4625
     25   -**--**-  5  -**--**-  5     -0.9633
          TOTAL                         -9.4815

  Mass number atom 1:   1          Abundance:   99.985
  Mass number atom 2:  15          Abundance:    0.370


                     DSO part of spin-spin coupling constant
                     ---------------------------------------


                label     I  label     J
      1   -**--**-  1  -**--**-  1      0.0402
      7   -**--**-  2  -**--**-  2      0.6834
     13   -**--**-  3  -**--**-  3     -0.2761
     19   -**--**-  4  -**--**-  4     -0.2761
     25   -**--**-  5  -**--**-  5     -0.3504
          TOTAL                         -0.1790


                     PSO part of spin-spin coupling constant
                     ---------------------------------------


                label     I  label     J
      6   -**--**-  1  -**--**-  2     -0.0290
      7   -**--**-  2  -**--**-  2     -0.1157
      8   -**--**-  3  -**--**-  2     -0.0213
      9   -**--**-  4  -**--**-  2     -0.0213
     10   -**--**-  5  -**--**-  2      0.1821
     13   -**--**-  3  -**--**-  3     -0.0682
     15   -**--**-  5  -**--**-  3     -0.0524
     19   -**--**-  4  -**--**-  4     -0.0682
     20   -**--**-  5  -**--**-  4     -0.0524
     21   -**--**-  1  -**--**-  5     -0.0922
     22   -**--**-  2  -**--**-  5     -0.1164
     23   -**--**-  3  -**--**-  5     -0.0111
     24   -**--**-  4  -**--**-  5     -0.0111
     25   -**--**-  5  -**--**-  5      0.3552
          TOTAL                         -0.1070


                      SD part of spin-spin coupling constant
                      --------------------------------------


                label     I  label     J
      7   -**--**-  2  -**--**-  2      0.2265
      8   -**--**-  3  -**--**-  2     -0.0166
      9   -**--**-  4  -**--**-  2     -0.0166
     10   -**--**-  5  -**--**-  2     -0.0135
     12   -**--**-  2  -**--**-  3      0.0748
     13   -**--**-  3  -**--**-  3     -0.0278
     14   -**--**-  4  -**--**-  3      0.0129
     17   -**--**-  2  -**--**-  4      0.0748
     18   -**--**-  3  -**--**-  4      0.0129
     19   -**--**-  4  -**--**-  4     -0.0278
     22   -**--**-  2  -**--**-  5      0.0454
     23   -**--**-  3  -**--**-  5     -0.0328
     24   -**--**-  4  -**--**-  5     -0.0328
     25   -**--**-  5  -**--**-  5     -0.1276
          TOTAL                          0.1369


                      FC part of spin-spin coupling constant
                      --------------------------------------


                label     I  label     J
      1   -**--**-  1  -**--**-  1     -0.0129
      2   -**--**-  2  -**--**-  1      6.3929
      3   -**--**-  3  -**--**-  1     -0.2745
      4   -**--**-  4  -**--**-  1     -0.2745
      5   -**--**-  5  -**--**-  1      0.6691
      7   -**--**-  2  -**--**-  2    -28.5226
      8   -**--**-  3  -**--**-  2     -0.5329
      9   -**--**-  4  -**--**-  2     -0.5329
     10   -**--**-  5  -**--**-  2     -0.2886
     12   -**--**-  2  -**--**-  3     10.6365
     13   -**--**-  3  -**--**-  3      1.0425
     14   -**--**-  4  -**--**-  3     -0.1982
     15   -**--**-  5  -**--**-  3     -0.2351
     17   -**--**-  2  -**--**-  4     10.6365
     18   -**--**-  3  -**--**-  4     -0.1982
     19   -**--**-  4  -**--**-  4      1.0425
     20   -**--**-  5  -**--**-  4     -0.2351
     21   -**--**-  1  -**--**-  5     -0.0284
     22   -**--**-  2  -**--**-  5     14.0842
     23   -**--**-  3  -**--**-  5     -0.6048
     24   -**--**-  4  -**--**-  5     -0.6048
     25   -**--**-  5  -**--**-  5      1.4742
          TOTAL                         13.4493


                        Total spin-spin coupling constant
                        ---------------------------------


                label     I  label     J
      1   -**--**-  1  -**--**-  1      0.0272
      2   -**--**-  2  -**--**-  1      6.3925
      3   -**--**-  3  -**--**-  1     -0.2746
      4   -**--**-  4  -**--**-  1     -0.2746
      5   -**--**-  5  -**--**-  1      0.6695
      6   -**--**-  1  -**--**-  2     -0.0284
      7   -**--**-  2  -**--**-  2    -27.7284
      8   -**--**-  3  -**--**-  2     -0.5708
      9   -**--**-  4  -**--**-  2     -0.5708
     10   -**--**-  5  -**--**-  2     -0.1199
     11   -**--**-  1  -**--**-  3      0.0134
     12   -**--**-  2  -**--**-  3     10.7081
     13   -**--**-  3  -**--**-  3      0.6704
     14   -**--**-  4  -**--**-  3     -0.1810
     15   -**--**-  5  -**--**-  3     -0.2957
     16   -**--**-  1  -**--**-  4      0.0134
     17   -**--**-  2  -**--**-  4     10.7081
     18   -**--**-  3  -**--**-  4     -0.1810
     19   -**--**-  4  -**--**-  4      0.6704
     20   -**--**-  5  -**--**-  4     -0.2957
     21   -**--**-  1  -**--**-  5     -0.1188
     22   -**--**-  2  -**--**-  5     14.0133
     23   -**--**-  3  -**--**-  5     -0.6488
     24   -**--**-  4  -**--**-  5     -0.6488
     25   -**--**-  5  -**--**-  5      1.3513
          TOTAL                         13.3002


              Indirect spin-spin-coupling between H2     and H1    :
              ======================================================


  Mass number atom 1:   1          Abundance:   99.985
  Mass number atom 2:   1          Abundance:   99.985


                     DSO part of spin-spin coupling constant
                     ---------------------------------------


                label     I  label     J
      1   -**--**-  1  -**--**-  1     -1.2897
      7   -**--**-  2  -**--**-  2     -1.7861
     13   -**--**-  3  -**--**-  3      0.0550
     19   -**--**-  4  -**--**-  4     -1.7861
          TOTAL                         -4.8129


                     PSO part of spin-spin coupling constant
                     ---------------------------------------


                label     I  label     J
      5   -**--**-  5  -**--**-  1     -0.0161
      7   -**--**-  2  -**--**-  2     -0.0207
      8   -**--**-  3  -**--**-  2      0.0893
      9   -**--**-  4  -**--**-  2     -0.1013
     10   -**--**-  5  -**--**-  2      0.0656
     13   -**--**-  3  -**--**-  3      0.2795
     14   -**--**-  4  -**--**-  3      0.0893
     15   -**--**-  5  -**--**-  3      0.0642
     19   -**--**-  4  -**--**-  4     -0.0207
     20   -**--**-  5  -**--**-  4     -0.0218
     21   -**--**-  1  -**--**-  5     -0.0161
     22   -**--**-  2  -**--**-  5     -0.0218
     23   -**--**-  3  -**--**-  5      0.0642
[...]
      8   -**--**-  3  -**--**-  2      0.0198
      9   -**--**-  4  -**--**-  2      0.0143
     10   -**--**-  5  -**--**-  2      0.0175
     13   -**--**-  3  -**--**-  3     -0.7041
     17   -**--**-  2  -**--**-  4      0.0143
     18   -**--**-  3  -**--**-  4      0.0198
     19   -**--**-  4  -**--**-  4      0.1899
     20   -**--**-  5  -**--**-  4      0.0175
     22   -**--**-  2  -**--**-  5      0.0294
     24   -**--**-  4  -**--**-  5      0.0294
     25   -**--**-  5  -**--**-  5      0.2676
          TOTAL                          0.0769


                      FC part of spin-spin coupling constant
                      --------------------------------------


                label     I  label     J
      1   -**--**-  1  -**--**-  1      0.9693
      2   -**--**-  2  -**--**-  1     -0.5530
      3   -**--**-  3  -**--**-  1     11.6276
      4   -**--**-  4  -**--**-  1     -0.5531
      5   -**--**-  5  -**--**-  1     -1.1984
      6   -**--**-  1  -**--**-  2      0.0120
      7   -**--**-  2  -**--**-  2     -2.7228
      8   -**--**-  3  -**--**-  2     -3.8134
      9   -**--**-  4  -**--**-  2      0.2567
     10   -**--**-  5  -**--**-  2      0.2129
     11   -**--**-  1  -**--**-  3      0.0195
     12   -**--**-  2  -**--**-  3      0.3105
     13   -**--**-  3  -**--**-  3     52.4467
     14   -**--**-  4  -**--**-  3      0.3105
     15   -**--**-  5  -**--**-  3      0.2365
     16   -**--**-  1  -**--**-  4      0.0120
     17   -**--**-  2  -**--**-  4      0.2567
     18   -**--**-  3  -**--**-  4     -3.8134
     19   -**--**-  4  -**--**-  4     -2.7228
     20   -**--**-  5  -**--**-  4      0.2129
     21   -**--**-  1  -**--**-  5      0.0555
     22   -**--**-  2  -**--**-  5      0.5190
     23   -**--**-  3  -**--**-  5     -9.2501
     24   -**--**-  4  -**--**-  5      0.5190
     25   -**--**-  5  -**--**-  5     -2.2847
          TOTAL                         41.0656


                        Total spin-spin coupling constant
                        ---------------------------------


                label     I  label     J
      1   -**--**-  1  -**--**-  1      0.9461
      2   -**--**-  2  -**--**-  1     -0.5531
      3   -**--**-  3  -**--**-  1     11.6274
      4   -**--**-  4  -**--**-  1     -0.5531
      5   -**--**-  5  -**--**-  1     -1.1977
      6   -**--**-  1  -**--**-  2      0.0394
      7   -**--**-  2  -**--**-  2     -1.8534
      8   -**--**-  3  -**--**-  2     -3.7920
      9   -**--**-  4  -**--**-  2      0.2716
     10   -**--**-  5  -**--**-  2      0.2596
     11   -**--**-  1  -**--**-  3     -0.0803
     12   -**--**-  2  -**--**-  3      0.3507
     13   -**--**-  3  -**--**-  3     51.2403
     14   -**--**-  4  -**--**-  3      0.3507
     15   -**--**-  5  -**--**-  3      0.1943
     16   -**--**-  1  -**--**-  4      0.0394
     17   -**--**-  2  -**--**-  4      0.2716
     18   -**--**-  3  -**--**-  4     -3.7920
     19   -**--**-  4  -**--**-  4     -1.8533
     20   -**--**-  5  -**--**-  4      0.2596
     21   -**--**-  1  -**--**-  5      0.2256
     22   -**--**-  2  -**--**-  5      0.5504
     23   -**--**-  3  -**--**-  5     -9.2225
     24   -**--**-  4  -**--**-  5      0.5504
     25   -**--**-  5  -**--**-  5     -1.2868
          TOTAL                         42.9930

  Mass number atom 1:   1          Abundance:   99.985
  Mass number atom 2:  15          Abundance:    0.370


                     DSO part of spin-spin coupling constant
                     ---------------------------------------


                label     I  label     J
      1   -**--**-  1  -**--**-  1      0.0402
      7   -**--**-  2  -**--**-  2     -0.2761
     13   -**--**-  3  -**--**-  3      0.6834
     19   -**--**-  4  -**--**-  4     -0.2761
     25   -**--**-  5  -**--**-  5     -0.3504
          TOTAL                         -0.1790


                     PSO part of spin-spin coupling constant
                     ---------------------------------------


                label     I  label     J
      6   -**--**-  1  -**--**-  2     -0.0383
      7   -**--**-  2  -**--**-  2     -0.6771
     10   -**--**-  5  -**--**-  2     -0.0409
     11   -**--**-  1  -**--**-  3      0.1397
     12   -**--**-  2  -**--**-  3     -0.0693
     13   -**--**-  3  -**--**-  3      0.0211
     14   -**--**-  4  -**--**-  3     -0.0693
     15   -**--**-  5  -**--**-  3      0.0542
     16   -**--**-  1  -**--**-  4     -0.0383
     19   -**--**-  4  -**--**-  4     -0.6771
     20   -**--**-  5  -**--**-  4     -0.0409
     21   -**--**-  1  -**--**-  5     -0.2393
     23   -**--**-  3  -**--**-  5     -0.0471
     25   -**--**-  5  -**--**-  5     -0.6740
          TOTAL                         -2.4169


                      SD part of spin-spin coupling constant
                      --------------------------------------


                label     I  label     J
      7   -**--**-  2  -**--**-  2     -0.2664
      8   -**--**-  3  -**--**-  2     -0.0278
      9   -**--**-  4  -**--**-  2     -0.0201
     10   -**--**-  5  -**--**-  2     -0.0246
     12   -**--**-  2  -**--**-  3      0.0130
     13   -**--**-  3  -**--**-  3      0.9877
     14   -**--**-  4  -**--**-  3      0.0130
     17   -**--**-  2  -**--**-  4     -0.0201
     18   -**--**-  3  -**--**-  4     -0.0278
     19   -**--**-  4  -**--**-  4     -0.2664
     20   -**--**-  5  -**--**-  4     -0.0246
     22   -**--**-  2  -**--**-  5     -0.0412
     24   -**--**-  4  -**--**-  5     -0.0412
     25   -**--**-  5  -**--**-  5     -0.3753
          TOTAL                         -0.1078


                      FC part of spin-spin coupling constant
                      --------------------------------------


                label     I  label     J
      1   -**--**-  1  -**--**-  1     -1.3596
      2   -**--**-  2  -**--**-  1      0.7758
      3   -**--**-  3  -**--**-  1    -16.3107
      4   -**--**-  4  -**--**-  1      0.7758
      5   -**--**-  5  -**--**-  1      1.6811
      6   -**--**-  1  -**--**-  2     -0.0168
      7   -**--**-  2  -**--**-  2      3.8194
      8   -**--**-  3  -**--**-  2      5.3493
      9   -**--**-  4  -**--**-  2     -0.3600
     10   -**--**-  5  -**--**-  2     -0.2987
     11   -**--**-  1  -**--**-  3     -0.0273
     12   -**--**-  2  -**--**-  3     -0.4356
     13   -**--**-  3  -**--**-  3    -73.5699
     14   -**--**-  4  -**--**-  3     -0.4356
     15   -**--**-  5  -**--**-  3     -0.3317
     16   -**--**-  1  -**--**-  4     -0.0168
     17   -**--**-  2  -**--**-  4     -0.3600
     18   -**--**-  3  -**--**-  4      5.3493
     19   -**--**-  4  -**--**-  4      3.8194
     20   -**--**-  5  -**--**-  4     -0.2987
     21   -**--**-  1  -**--**-  5     -0.0779
     22   -**--**-  2  -**--**-  5     -0.7280
     23   -**--**-  3  -**--**-  5     12.9756
     24   -**--**-  4  -**--**-  5     -0.7280
     25   -**--**-  5  -**--**-  5      3.2048
          TOTAL                        -57.6050


                        Total spin-spin coupling constant
                        ---------------------------------


                label     I  label     J
      1   -**--**-  1  -**--**-  1     -1.3271
      2   -**--**-  2  -**--**-  1      0.7759
      3   -**--**-  3  -**--**-  1    -16.3104
      4   -**--**-  4  -**--**-  1      0.7759
      5   -**--**-  5  -**--**-  1      1.6801
      6   -**--**-  1  -**--**-  2     -0.0552
      7   -**--**-  2  -**--**-  2      2.5998
      8   -**--**-  3  -**--**-  2      5.3193
      9   -**--**-  4  -**--**-  2     -0.3810
     10   -**--**-  5  -**--**-  2     -0.3642
     11   -**--**-  1  -**--**-  3      0.1126
     12   -**--**-  2  -**--**-  3     -0.4919
     13   -**--**-  3  -**--**-  3    -71.8776
     14   -**--**-  4  -**--**-  3     -0.4919
     15   -**--**-  5  -**--**-  3     -0.2726
     16   -**--**-  1  -**--**-  4     -0.0552
     17   -**--**-  2  -**--**-  4     -0.3810
     18   -**--**-  3  -**--**-  4      5.3193
     19   -**--**-  4  -**--**-  4      2.5998
     20   -**--**-  5  -**--**-  4     -0.3642
     21   -**--**-  1  -**--**-  5     -0.3165
     22   -**--**-  2  -**--**-  5     -0.7721
     23   -**--**-  3  -**--**-  5     12.9369
     24   -**--**-  4  -**--**-  5     -0.7721
     25   -**--**-  5  -**--**-  5      1.8050
          TOTAL                        -60.3087


              Indirect spin-spin-coupling between H3     and H1    :
              ======================================================


  Mass number atom 1:   1          Abundance:   99.985
  Mass number atom 2:   1          Abundance:   99.985


                     DSO part of spin-spin coupling constant
                     ---------------------------------------


                label     I  label     J
      1   -**--**-  1  -**--**-  1     -1.5801
      7   -**--**-  2  -**--**-  2     -0.1737
     13   -**--**-  3  -**--**-  3     -2.1874
     19   -**--**-  4  -**--**-  4     -1.8720
     25   -**--**-  5  -**--**-  5     -0.3136
          TOTAL                         -6.1268


                     PSO part of spin-spin coupling constant
                     ---------------------------------------


                label     I  label     J
      1   -**--**-  1  -**--**-  1      0.2594
      4   -**--**-  4  -**--**-  1      0.0167
      5   -**--**-  5  -**--**-  1     -0.0290
      7   -**--**-  2  -**--**-  2      0.5080
      9   -**--**-  4  -**--**-  2      0.0419
     10   -**--**-  5  -**--**-  2      0.0449
     11   -**--**-  1  -**--**-  3      0.0167
     12   -**--**-  2  -**--**-  3      0.0419
     13   -**--**-  3  -**--**-  3      0.1929
     14   -**--**-  4  -**--**-  3     -0.0940
     15   -**--**-  5  -**--**-  3      0.0432
     19   -**--**-  4  -**--**-  4      0.1929
     21   -**--**-  1  -**--**-  5     -0.0290
     22   -**--**-  2  -**--**-  5      0.0449
     24   -**--**-  4  -**--**-  5      0.0432
     25   -**--**-  5  -**--**-  5      0.8592
          TOTAL                          2.1327


                      SD part of spin-spin coupling constant
                      --------------------------------------


                label     I  label     J
      7   -**--**-  2  -**--**-  2      0.1073
      8   -**--**-  3  -**--**-  2      0.0138
     10   -**--**-  5  -**--**-  2      0.0118
     13   -**--**-  3  -**--**-  3      0.2095
     17   -**--**-  2  -**--**-  4      0.0138
     18   -**--**-  3  -**--**-  4      0.0936
     19   -**--**-  4  -**--**-  4      0.2095
     20   -**--**-  5  -**--**-  4      0.0154
     22   -**--**-  2  -**--**-  5      0.0118
     23   -**--**-  3  -**--**-  5      0.0154
     25   -**--**-  5  -**--**-  5      0.1220
          TOTAL                          0.8278


                      FC part of spin-spin coupling constant
                      --------------------------------------


                label     I  label     J
      3   -**--**-  3  -**--**-  1     -0.0185
      7   -**--**-  2  -**--**-  2     -0.0793
     10   -**--**-  5  -**--**-  2      0.0180
     13   -**--**-  3  -**--**-  3      1.5888
     14   -**--**-  4  -**--**-  3     -0.0301
     16   -**--**-  1  -**--**-  4     -0.0185
     18   -**--**-  3  -**--**-  4    -14.1535
     19   -**--**-  4  -**--**-  4      1.5888
     20   -**--**-  5  -**--**-  4     -0.0362
     22   -**--**-  2  -**--**-  5      0.0180
     23   -**--**-  3  -**--**-  5     -0.0362
          TOTAL                        -11.1519


                        Total spin-spin coupling constant
                        ---------------------------------


                label     I  label     J
      1   -**--**-  1  -**--**-  1     -1.3236
      3   -**--**-  3  -**--**-  1     -0.0130
      4   -**--**-  4  -**--**-  1      0.0178
      5   -**--**-  5  -**--**-  1     -0.0283
      7   -**--**-  2  -**--**-  2      0.3622
      8   -**--**-  3  -**--**-  2      0.0192
      9   -**--**-  4  -**--**-  2      0.0435
     10   -**--**-  5  -**--**-  2      0.0747
     11   -**--**-  1  -**--**-  3      0.0178
     12   -**--**-  2  -**--**-  3      0.0435
     13   -**--**-  3  -**--**-  3     -0.1963
     14   -**--**-  4  -**--**-  3     -0.1155
     15   -**--**-  5  -**--**-  3      0.0359
     16   -**--**-  1  -**--**-  4     -0.0130
     17   -**--**-  2  -**--**-  4      0.0192
     18   -**--**-  3  -**--**-  4    -14.0692
     19   -**--**-  4  -**--**-  4      0.1192
     20   -**--**-  5  -**--**-  4     -0.0269
     21   -**--**-  1  -**--**-  5     -0.0283
     22   -**--**-  2  -**--**-  5      0.0747
     23   -**--**-  3  -**--**-  5     -0.0269
     24   -**--**-  4  -**--**-  5      0.0359
     25   -**--**-  5  -**--**-  5      0.6617
          TOTAL                        -14.3183


              Indirect spin-spin-coupling between H3     and H2    :
              ======================================================


  Mass number atom 1:   1          Abundance:   99.985
  Mass number atom 2:   1          Abundance:   99.985


                     DSO part of spin-spin coupling constant
                     ---------------------------------------


                label     I  label     J
      1   -**--**-  1  -**--**-  1      0.2904
      7   -**--**-  2  -**--**-  2      0.0859
     13   -**--**-  3  -**--**-  3      0.4013
     19   -**--**-  4  -**--**-  4      0.2287
     25   -**--**-  5  -**--**-  5      0.3076
          TOTAL                          1.3139


                     PSO part of spin-spin coupling constant
                     ---------------------------------------


                label     I  label     J
      1   -**--**-  1  -**--**-  1      0.2594
      2   -**--**-  2  -**--**-  1      0.0167
      5   -**--**-  5  -**--**-  1     -0.0290
      7   -**--**-  2  -**--**-  2      0.1929
     11   -**--**-  1  -**--**-  3      0.0167
     12   -**--**-  2  -**--**-  3     -0.0940
     13   -**--**-  3  -**--**-  3      0.1929
     14   -**--**-  4  -**--**-  3      0.0419
     15   -**--**-  5  -**--**-  3      0.0432
     17   -**--**-  2  -**--**-  4      0.0419
     19   -**--**-  4  -**--**-  4      0.5080
     20   -**--**-  5  -**--**-  4      0.0449
     21   -**--**-  1  -**--**-  5     -0.0290
     22   -**--**-  2  -**--**-  5      0.0432
     24   -**--**-  4  -**--**-  5      0.0449
     25   -**--**-  5  -**--**-  5      0.8592
          TOTAL                          2.1327


                      SD part of spin-spin coupling constant
                      --------------------------------------


                label     I  label     J
      7   -**--**-  2  -**--**-  2      0.2095
      8   -**--**-  3  -**--**-  2      0.0936
      9   -**--**-  4  -**--**-  2      0.0138
     10   -**--**-  5  -**--**-  2      0.0154
     13   -**--**-  3  -**--**-  3      0.2095
     18   -**--**-  3  -**--**-  4      0.0138
     19   -**--**-  4  -**--**-  4      0.1073
     20   -**--**-  5  -**--**-  4      0.0118
     23   -**--**-  3  -**--**-  5      0.0154
     24   -**--**-  4  -**--**-  5      0.0118
     25   -**--**-  5  -**--**-  5      0.1220
          TOTAL                          0.8278


                      FC part of spin-spin coupling constant
                      --------------------------------------


                label     I  label     J
      3   -**--**-  3  -**--**-  1     -0.0185
      6   -**--**-  1  -**--**-  2     -0.0185
      7   -**--**-  2  -**--**-  2      1.5888
      8   -**--**-  3  -**--**-  2    -14.1535
     10   -**--**-  5  -**--**-  2     -0.0362
     12   -**--**-  2  -**--**-  3     -0.0301
     13   -**--**-  3  -**--**-  3      1.5888
     19   -**--**-  4  -**--**-  4     -0.0793
     20   -**--**-  5  -**--**-  4      0.0180
     23   -**--**-  3  -**--**-  5     -0.0362
     24   -**--**-  4  -**--**-  5      0.0180
          TOTAL                        -11.1519


                        Total spin-spin coupling constant
                        ---------------------------------


                label     I  label     J
      1   -**--**-  1  -**--**-  1      0.5470
      2   -**--**-  2  -**--**-  1      0.0178
      3   -**--**-  3  -**--**-  1     -0.0130
      5   -**--**-  5  -**--**-  1     -0.0283
      6   -**--**-  1  -**--**-  2     -0.0130
      7   -**--**-  2  -**--**-  2      2.0770
      8   -**--**-  3  -**--**-  2    -14.0692
      9   -**--**-  4  -**--**-  2      0.0192
     10   -**--**-  5  -**--**-  2     -0.0269
     11   -**--**-  1  -**--**-  3      0.0178
     12   -**--**-  2  -**--**-  3     -0.1155
     13   -**--**-  3  -**--**-  3      2.3925
     14   -**--**-  4  -**--**-  3      0.0435
     15   -**--**-  5  -**--**-  3      0.0359
     17   -**--**-  2  -**--**-  4      0.0435
     18   -**--**-  3  -**--**-  4      0.0192
     19   -**--**-  4  -**--**-  4      0.7646
     20   -**--**-  5  -**--**-  4      0.0747
     21   -**--**-  1  -**--**-  5     -0.0283
     22   -**--**-  2  -**--**-  5      0.0359
     23   -**--**-  3  -**--**-  5     -0.0269
     24   -**--**-  4  -**--**-  5      0.0747
     25   -**--**-  5  -**--**-  5      1.2829
          TOTAL                         -6.8776

 Automatic convergence of the SOS
 --------------------------------

  SSCC Nº:   6  Term Nº:    5  Method:   7  Threshold [%]:5.00
 ----------------------------------------------------------------------
 Pseudo Exc. Energ. Nº:  50   App. value : -6.8776   Resp. value:-13.0044
 ----------------------------------------------------------------------

  Series to be analyzed :  11  50

 In SERCON :    Step,      X,        Y
               1.0000   5.0000  17.4335
               2.0000  10.0000  -8.7086
               3.0000  15.0000   0.9278
               4.0000  20.0000 -58.3607
               5.0000  25.0000-134.1750
               6.0000  30.0000  -9.9450
               7.0000  35.0000   4.2500
               8.0000  40.0000  -7.1171
               9.0000  45.0000  -6.9400
              10.0000  50.0000  -6.8776

 Use function "Y = A + B*Tanh(C*N)" to approach the value


 Estimation by Levenberg-Marquart method

  Initial guess for A, B & C :      6.50    -26.01      0.13


   X  ,   Y    and Standard deviation
               5.0000  17.4335  12.1383
              10.0000  -8.7086   3.8715
              15.0000   0.9278   6.9188
              20.0000 -58.3607  11.8299
              25.0000-134.1750  35.8045
              30.0000  -9.9450   3.4805
              35.0000   4.2500   7.9693
              40.0000  -7.1171   4.3747
              45.0000  -6.9400   4.4308
              50.0000  -6.8776   4.4505

  Mean Value :    -20.95


  The methods seems to be okay !!!

  The methods seems to be okay !!!

  The methods seems to be okay !!!

  The methods seems to be okay !!!

  Finally it seems that the program reached somewhere in :   11 and    10 steps


  Final guess for A, B & C :     10.06    -22.50      0.03


  7- The Ers give :         28.02 &         28.02  Required :          5.00

  Resp. value :    -13.00  App. value :     -9.36 & :     -9.36

 The largest is used for comparizon with the required
  Time used in SOSDRV     is      1 minute  24 seconds


 CPU time statistics for ABACUS
 ------------------------------

 LINRES     00:00:30       3 %
 TRP LR     00:02:04      15 %

 TOTAL      00:14:05     100 %


  Total CPU  time used in ABACUS: 14 minutes  5 seconds
  Total wall time used in ABACUS: 14 minutes 11 seconds


                   .-------------------------------------------.
                   | End of Static Property Section (ABACUS) - |
                   `-------------------------------------------'

  Total CPU  time used in DALTON: 14 minutes 11 seconds
  Total wall time used in DALTON: 14 minutes 18 seconds

 
     Date and time (Linux)  : Sat Oct 19 23:13:42 2019
     Host name              : patricio-Studio-1558                    
